Date,Open,High,Low,Close,Volume
2010-06-11,7.0,7.59,7.0,7.0,1449868
2010-06-14,7.01,7.08,6.41,6.52,625570
2010-06-15,6.69,7.0,6.5,6.55,258147
2010-06-16,6.89,6.89,6.08,6.2,324865
2010-06-17,6.2,6.26,6.04,6.08,150122
2010-06-18,6.1,6.44,6.02,6.2,124617
2010-06-21,6.35,6.79,6.21,6.36,122794
2010-06-22,6.47,6.47,6.25,6.3,17433
2010-06-23,6.45,6.5,6.2,6.31,45800
2010-06-24,6.45,6.6,6.1,6.25,35234
2010-06-25,6.21,6.43,6.21,6.23,16100
2010-06-28,6.49,6.69,6.38,6.5,67988
2010-06-29,6.51,6.51,5.85,6.0,114744
2010-06-30,6.0,6.01,5.77,5.85,70627
2010-07-01,5.75,5.9,5.62,5.74,48110
2010-07-02,5.76,5.76,5.45,5.58,56380
2010-07-06,5.71,5.71,5.29,5.31,17030
2010-07-07,5.5,5.98,5.31,5.57,86211
2010-07-08,5.7,5.7,5.5,5.57,51455
2010-07-09,5.5,5.7,5.25,5.65,101575
2010-07-12,5.56,5.6,5.39,5.55,49500
2010-07-13,5.63,5.77,5.46,5.5,108610
2010-07-14,5.5,5.5,5.25,5.4,82090
2010-07-15,5.39,5.39,5.24,5.29,45230
2010-07-16,5.27,5.42,4.77,4.93,177268
2010-07-19,4.98,5.0,4.96,5.0,43910
2010-07-20,4.96,5.3,4.96,5.3,73930
2010-07-21,5.39,5.5,4.94,5.21,57994
2010-07-22,5.45,5.69,5.4,5.53,139996
2010-07-23,5.47,5.51,5.33,5.5,66938
2010-07-26,5.48,6.0,4.8,5.86,259719
2010-07-27,5.95,5.95,5.73,5.83,88772
2010-07-28,5.88,5.9,5.67,5.72,44399
2010-07-29,5.8,6.05,5.72,5.97,183635
2010-07-30,5.91,6.25,5.91,6.19,87095
2010-08-02,6.29,6.6,6.23,6.52,240450
2010-08-03,6.6,7.0,6.53,6.98,226909
2010-08-04,7.05,7.07,6.88,6.99,251497
2010-08-05,7.2,7.6,6.9,7.05,425856
2010-08-06,6.96,7.1,6.8,6.86,142020
2010-08-09,6.96,7.5,6.65,7.26,473472
2010-08-10,7.4,7.48,7.14,7.48,287665
2010-08-11,7.46,7.48,7.0,7.12,223225
2010-08-12,7.0,8.14,7.0,7.93,807289
2010-08-13,8.01,8.8,7.95,8.54,912110
2010-08-16,8.6,8.75,8.03,8.29,481710
2010-08-17,8.3,9.0,8.1,8.4,774993
2010-08-18,8.5,9.55,8.33,9.38,1240882
2010-08-19,9.41,9.94,8.87,9.13,911476
2010-08-20,9.31,9.6,8.92,9.24,732007
2010-08-23,9.32,9.43,8.2,8.67,771525
2010-08-24,8.35,8.72,8.11,8.37,428515
2010-08-25,8.12,8.45,7.67,8.14,573360
2010-08-26,8.12,8.35,7.8,7.85,310674
2010-08-27,7.88,8.3,7.65,8.29,303587
2010-08-30,8.4,8.6,8.05,8.11,245310
2010-08-31,8.44,8.5,7.98,8.12,281434
2010-09-01,8.35,8.42,8.3,8.38,255110
2010-09-02,8.56,9.91,8.4,9.91,1657648
2010-09-03,10.23,10.49,9.61,9.92,904825
2010-09-07,10.08,10.3,9.03,9.22,1055729
2010-09-08,9.28,10.0,9.23,9.74,628402
2010-09-09,9.95,10.1,9.5,9.65,386728
2010-09-10,9.84,10.66,9.65,10.5,1236931
2010-09-13,10.85,10.92,10.07,10.34,1057790
2010-09-14,10.25,10.25,9.73,9.92,450073
2010-09-15,9.9,10.5,8.07,8.52,2160192
2010-09-16,8.5,8.88,8.19,8.29,498045
2010-09-17,8.5,8.66,8.21,8.45,448894
2010-09-20,8.36,8.65,7.5,7.59,1210299
2010-09-21,7.76,8.93,7.59,8.78,874833
2010-09-22,8.68,8.77,8.25,8.39,327344
2010-09-23,8.26,8.5,7.93,8.42,161036
2010-09-24,8.58,9.08,8.35,8.79,458908
2010-09-27,9.0,9.7,8.94,9.66,709702
2010-09-28,9.7,10.1,9.06,9.71,758982
2010-09-29,9.99,10.21,9.77,10.21,552767
2010-09-30,10.36,11.6,9.95,11.6,1154833
2010-10-01,11.6,11.76,10.7,11.07,767007
2010-10-04,11.07,11.32,10.25,10.43,611625
2010-10-05,10.45,11.35,10.4,11.08,777466
2010-10-06,11.29,11.72,10.75,11.22,733573
2010-10-07,11.76,13.27,11.75,13.15,1729680
2010-10-08,13.28,16.14,12.8,16.08,2256036
2010-10-11,16.76,18.94,15.21,16.54,5341874
2010-10-12,16.49,17.5,15.21,17.3,3994724
2010-10-13,17.52,18.3,17.06,17.89,1695431
2010-10-14,18.1,20.5,17.91,19.4,2721299
2010-10-15,20.41,20.5,17.51,18.55,2251038
2010-10-18,18.4,19.91,17.66,18.17,1914394
2010-10-19,17.81,18.99,17.56,18.1,1159703
2010-10-20,18.55,19.39,18.25,18.8,1099483
2010-10-21,18.64,19.07,14.01,14.05,4509883
2010-10-22,14.46,15.98,14.31,15.62,2160947
2010-10-25,16.31,17.32,16.25,17.1,1556187
2010-10-26,17.2,17.74,15.5,15.99,2107160
2010-10-27,15.15,15.75,14.65,15.33,1509809
2010-10-28,15.5,16.39,15.5,15.8,764146
2010-10-29,15.82,15.84,14.45,14.63,1215759
2010-11-01,14.57,14.7,12.72,13.03,2112014
2010-11-02,13.04,15.49,13.01,15.17,2007353
2010-11-03,15.77,16.1,14.5,14.92,1367187
2010-11-04,15.52,15.6,14.65,15.01,966805
2010-11-05,15.14,15.25,14.65,14.77,540095
2010-11-08,15.0,16.97,14.66,16.91,1881448
2010-11-09,17.0,17.17,14.8,15.24,2187933
2010-11-10,15.13,15.15,14.14,14.87,865791
2010-11-11,15.25,15.25,14.16,14.68,606226
2010-11-12,14.26,14.87,13.99,14.03,651478
2010-11-15,14.0,15.1,13.95,14.42,1149358
2010-11-16,14.0,15.05,12.26,12.82,1891055
2010-11-17,13.0,13.14,11.08,11.1,1731026
2010-11-18,11.62,12.56,11.2,12.39,1075594
2010-11-19,11.77,12.73,11.5,12.31,469352
2010-11-22,12.05,12.27,11.33,11.75,869483
2010-11-23,11.53,11.53,11.0,11.01,519964
2010-11-24,11.24,11.75,11.01,11.12,638236
2010-11-26,11.12,12.3,10.66,12.23,752748
2010-11-29,12.28,12.32,11.4,11.62,508473
2010-11-30,11.6,12.5,11.32,12.4,721820
2010-12-01,12.76,12.8,11.45,11.76,660808
2010-12-02,11.74,12.18,11.53,11.88,539998
2010-12-03,11.67,12.13,11.33,11.54,373234
2010-12-06,11.41,11.85,11.41,11.77,373398
2010-12-07,11.86,12.1,10.81,11.22,727492
2010-12-08,11.33,11.74,10.88,11.0,548900
2010-12-09,11.19,11.19,9.65,9.9,1397905
2010-12-10,9.89,10.5,9.5,10.33,704633
2010-12-13,10.35,10.43,10.0,10.15,302452
2010-12-14,10.05,11.1,10.05,10.84,526362
2010-12-15,10.86,11.54,10.85,11.29,558085
2010-12-16,11.35,11.37,10.84,11.32,395878
2010-12-17,11.47,11.47,10.9,11.19,133978
2010-12-20,11.04,11.27,11.01,11.15,144480
2010-12-21,11.47,12.25,11.18,12.15,740887
2010-12-22,12.24,12.55,11.75,12.54,505590
2010-12-23,12.33,12.78,11.91,11.99,214258
2010-12-27,11.88,12.15,11.63,11.76,93592
2010-12-28,11.76,11.93,10.68,10.82,477569
2010-12-29,10.72,10.97,10.48,10.69,339715
2010-12-30,10.77,10.84,10.56,10.66,280632
2010-12-31,10.6,10.63,10.35,10.4,203979
2011-01-03,10.48,11.0,10.45,10.9,281416
2011-01-04,10.96,11.0,10.41,10.66,198641
2011-01-05,10.5,10.8,10.46,10.5,213925
2011-01-06,10.62,10.68,10.45,10.51,156098
2011-01-07,10.72,10.85,10.55,10.77,234059
2011-01-10,10.92,12.12,10.88,12.02,876087
2011-01-11,12.14,12.32,11.2,11.51,631261
2011-01-12,11.82,11.9,11.4,11.88,201727
2011-01-13,11.98,13.2,11.6,13.12,1372078
2011-01-14,13.35,13.88,12.8,13.24,1154539
2011-01-18,13.3,13.3,12.38,13.07,408147
2011-01-19,13.1,13.74,12.8,13.07,593407
2011-01-20,12.84,13.05,11.95,12.75,523269
2011-01-21,12.84,13.0,12.25,12.41,285523
2011-01-24,12.42,14.33,12.42,14.29,1210110
2011-01-25,13.95,14.38,13.6,14.0,488396
2011-01-26,14.09,14.34,13.65,13.91,329055
2011-01-27,14.23,14.23,13.35,13.73,491567
2011-01-28,13.92,14.75,13.77,14.0,868135
2011-01-31,14.03,14.5,13.63,13.92,405309
2011-02-01,14.32,14.32,13.65,14.13,303063
2011-02-02,14.05,14.3,13.75,14.08,259777
2011-02-03,14.05,14.05,12.28,13.03,906086
2011-02-04,12.87,13.09,12.55,12.81,344270
2011-02-07,12.96,13.14,12.65,12.72,223778
2011-02-08,12.68,12.68,12.1,12.62,287052
2011-02-09,12.51,12.88,12.22,12.86,217814
2011-02-10,12.61,12.98,12.61,12.89,140747
2011-02-11,13.03,13.08,12.73,12.85,96023
2011-02-14,12.76,12.84,12.47,12.57,105373
2011-02-15,12.45,12.59,12.12,12.19,152523
2011-02-16,12.22,12.43,11.43,11.49,437795
2011-02-17,11.63,12.16,11.6,11.74,240798
2011-02-18,11.74,11.74,11.3,11.52,206004
2011-02-22,11.26,11.64,11.0,11.11,214695
2011-02-23,11.02,11.7,10.85,10.99,236993
2011-02-24,11.05,12.0,10.93,12.0,211770
2011-02-25,11.9,12.23,11.62,12.02,234902
2011-02-28,12.12,12.66,12.05,12.42,323859
2011-03-01,12.44,12.48,11.99,12.06,137800
2011-03-02,12.04,12.13,11.29,11.87,228539
2011-03-03,12.5,13.47,12.23,13.25,1004073
2011-03-04,13.41,13.41,12.82,12.9,302895
2011-03-07,13.18,13.24,12.02,12.17,290963
2011-03-08,12.14,12.15,11.75,11.85,125281
2011-03-09,11.76,12.34,11.4,11.76,158361
2011-03-10,11.6,11.72,11.25,11.55,125786
2011-03-11,11.68,11.68,10.95,10.97,173737
2011-03-14,11.1,11.1,10.35,10.7,243513
2011-03-15,9.88,10.75,8.8,10.22,943024
2011-03-16,10.07,11.2,9.86,10.19,558643
2011-03-17,10.4,10.48,9.9,10.12,177974
2011-03-18,10.15,10.5,10.1,10.31,178544
2011-03-21,10.5,10.55,10.1,10.27,139664
2011-03-22,10.38,10.38,9.93,10.15,141394
2011-03-23,10.1,10.17,9.88,10.05,127978
2011-03-24,10.09,10.35,10.05,10.18,136951
2011-03-25,10.32,10.36,9.94,9.97,132161
2011-03-28,9.97,10.34,9.95,10.09,164072
2011-03-29,10.09,10.15,9.97,10.07,73848
2011-03-30,10.5,10.5,10.0,10.41,304309
2011-03-31,10.5,10.95,10.4,10.86,256328
2011-04-01,10.86,11.51,10.85,11.28,317611
2011-04-04,11.28,11.62,11.28,11.51,117296
2011-04-05,11.45,11.45,11.05,11.17,148495
2011-04-06,11.2,11.44,10.21,10.6,243500
2011-04-07,10.72,10.89,10.38,10.56,82219
2011-04-08,10.6,10.6,10.06,10.26,180650
2011-04-11,10.21,10.39,10.05,10.28,92476
2011-04-12,10.35,10.35,9.75,10.1,179723
2011-04-13,10.08,10.08,9.43,9.56,284490
2011-04-14,9.5,9.58,8.6,9.0,527349
2011-04-15,8.87,9.52,8.67,9.51,305591
2011-04-18,9.5,9.51,9.0,9.21,121935
2011-04-19,9.19,9.19,8.76,8.86,143354
2011-04-20,8.98,9.5,8.98,9.5,176923
2011-04-21,9.53,9.53,8.9,9.07,135507
2011-04-25,8.99,9.25,8.91,9.2,105732
2011-04-26,9.18,9.3,9.1,9.28,119675
2011-04-27,9.23,9.39,9.2,9.25,59841
2011-04-28,9.54,9.74,9.29,9.3,166776
2011-04-29,9.3,9.55,9.25,9.33,70828
2011-05-02,9.34,9.4,9.16,9.24,70976
2011-05-03,9.17,9.23,9.1,9.12,127740
2011-05-04,9.1,9.25,8.86,8.96,49377
2011-05-05,8.91,9.1,8.86,8.98,41944
2011-05-06,9.06,9.2,8.86,8.92,39756
2011-05-09,8.98,9.01,8.76,9.01,74850
2011-05-10,9.08,9.19,8.75,8.82,126777
2011-05-11,8.92,9.05,8.8,8.86,102409
2011-05-12,9.39,9.55,9.01,9.54,229184
2011-05-13,9.65,9.98,9.43,9.55,176954
2011-05-16,9.79,10.5,9.79,10.05,265215
2011-05-17,10.35,10.35,9.05,9.41,608965
2011-05-18,9.45,9.54,9.14,9.23,245829
2011-05-19,9.23,9.27,8.98,8.99,283945
2011-05-20,9.0,9.05,8.07,8.25,303018
2011-05-23,8.24,8.24,6.93,7.19,569602
2011-05-24,7.21,7.48,6.7,6.94,409460
2011-05-25,6.86,7.0,6.7,6.78,185064
2011-05-26,6.75,6.8,6.12,6.17,343709
2011-05-27,6.18,6.58,6.18,6.5,243926
2011-05-31,6.91,7.07,6.46,6.5,146484
2011-06-01,6.5,6.54,6.11,6.16,181945
2011-06-02,6.3,6.46,5.96,6.02,124999
2011-06-03,5.99,5.99,5.65,5.67,333411
2011-06-06,5.65,5.95,5.05,5.13,312802
2011-06-07,5.94,5.94,5.0,5.13,382740
2011-06-08,5.1,5.15,4.82,4.94,194973
2011-06-09,4.99,5.0,4.51,4.71,260664
2011-06-10,4.64,4.64,4.36,4.47,238885
2011-06-13,4.43,4.6,3.83,3.92,365648
2011-06-14,4.02,5.39,3.5,4.95,1198291
2011-06-15,4.98,4.98,4.26,4.49,465279
2011-06-16,4.37,4.8,4.25,4.43,365430
2011-06-17,4.46,4.6,4.03,4.3,236732
2011-06-20,4.29,4.34,3.9,3.93,190228
2011-06-21,4.14,4.9,4.11,4.74,567266
2011-06-22,4.93,5.15,4.74,4.94,457193
2011-06-23,4.93,4.93,4.33,4.6,335273
2011-06-24,4.6,4.91,4.51,4.73,190716
2011-06-27,4.81,4.87,4.55,4.63,198080
2011-06-28,4.74,5.33,4.6,5.06,467409
2011-06-29,5.01,5.33,4.85,5.16,461217
2011-06-30,5.37,5.48,5.06,5.1,306950
2011-07-01,5.13,5.26,4.96,5.25,225590
2011-07-05,5.31,5.94,5.25,5.89,534917
2011-07-06,6.0,7.3,5.75,6.96,2299965
2011-07-07,7.24,8.22,7.03,7.91,2248060
2011-07-08,7.31,7.59,6.53,7.57,1193650
2011-07-11,7.48,7.48,7.02,7.1,497312
2011-07-12,7.25,7.27,6.35,6.77,792777
2011-07-13,7.1,7.41,6.65,6.67,650320
2011-07-14,6.67,7.09,6.38,6.97,778963
2011-07-15,7.03,7.36,6.75,7.08,833524
2011-07-18,7.03,7.25,6.75,7.0,351239
2011-07-19,7.04,7.7,7.01,7.21,849963
2011-07-20,7.36,7.39,7.0,7.23,208200
2011-07-21,7.3,7.49,7.0,7.12,368757
2011-07-22,6.95,7.1,6.85,7.04,373016
2011-07-25,7.0,7.1,6.9,7.01,244173
2011-07-26,7.0,7.17,6.97,7.07,132175
2011-07-27,7.05,7.09,6.99,7.01,279232
2011-07-28,7.12,7.12,7.0,7.0,118590
2011-07-29,7.0,7.04,6.85,6.89,443144
2011-08-01,7.04,7.04,5.75,5.84,851281
2011-08-02,5.8,6.14,5.51,5.64,275662
2011-08-03,5.63,5.69,4.8,5.22,475773
2011-08-04,4.96,5.12,4.2,4.28,451747
2011-08-05,4.32,4.7,4.17,4.59,296899
2011-08-08,4.2,4.45,4.0,4.01,668253
2011-08-09,4.07,4.65,4.06,4.58,509779
2011-08-10,4.58,5.25,4.11,4.91,514209
2011-08-11,4.96,5.16,4.28,4.66,515579
2011-08-12,4.7,5.12,4.6,4.67,423625
2011-08-15,4.75,4.8,4.6,4.78,258552
2011-08-16,4.71,4.77,4.5,4.73,110874
2011-08-17,4.8,5.0,4.56,4.82,239957
2011-08-18,4.7,4.73,4.16,4.2,298875
2011-08-19,4.09,4.3,3.88,4.08,166630
2011-08-22,4.25,4.31,3.77,3.82,130521
2011-08-23,3.95,4.89,3.86,4.4,422741
2011-08-24,4.43,4.59,4.11,4.17,160121
2011-08-25,4.15,4.2,4.07,4.1,77654
2011-08-26,4.0,4.24,3.96,4.24,64913
2011-08-29,4.36,4.58,4.23,4.37,262242
2011-08-30,4.4,4.49,4.14,4.34,90146
2011-08-31,4.43,4.48,4.25,4.32,63606
2011-09-01,4.29,4.4,3.98,4.03,107800
2011-09-02,3.87,4.03,3.81,3.96,81997
2011-09-06,3.77,4.02,3.77,3.9,92094
2011-09-07,4.0,4.11,3.9,3.9,118771
2011-09-08,3.9,3.94,3.85,3.89,106366
2011-09-09,3.87,3.87,3.7,3.75,109544
2011-09-12,3.66,3.8,3.59,3.68,106543
2011-09-13,3.66,3.74,3.58,3.73,95885
2011-09-14,3.73,3.73,3.55,3.63,115099
2011-09-15,3.65,3.95,3.61,3.83,209087
2011-09-16,3.8,3.8,3.63,3.65,109940
2011-09-19,3.65,3.65,3.55,3.58,157252
2011-09-20,3.58,3.75,3.58,3.7,88160
2011-09-21,3.64,3.66,3.51,3.54,135033
2011-09-22,3.49,3.55,3.06,3.18,289997
2011-09-23,3.17,3.18,2.98,3.05,97515
2011-09-26,3.1,3.9,3.1,3.69,286207
2011-09-27,3.9,4.8,3.82,4.01,518036
2011-09-28,4.01,4.14,3.55,3.59,155176
2011-09-29,3.55,3.73,3.15,3.28,299477
2011-09-30,3.3,3.5,3.23,3.27,201935
2011-10-03,3.28,3.37,2.81,2.94,153442
2011-10-04,2.95,3.47,2.78,3.47,572274
2011-10-05,3.42,3.75,3.36,3.49,229033
2011-10-06,3.57,3.77,3.25,3.64,197673
2011-10-07,3.59,3.73,3.29,3.42,79626
2011-10-10,3.59,3.76,3.45,3.61,134886
2011-10-11,3.55,3.91,3.55,3.75,90690
2011-10-12,3.86,4.07,3.81,4.0,233354
2011-10-13,3.89,4.1,3.59,3.81,223815
2011-10-14,3.85,3.96,3.85,3.9,65508
2011-10-17,3.92,4.0,3.62,3.95,87283
2011-10-18,3.97,4.0,3.71,3.96,92101
2011-10-19,3.96,3.96,3.8,3.93,47132
2011-10-20,3.87,3.93,3.66,3.79,51820
2011-10-21,3.91,3.91,3.71,3.77,59868
2011-10-24,3.77,4.05,3.77,3.95,152003
2011-10-25,4.02,4.09,3.81,3.92,109617
2011-10-26,3.95,4.04,3.68,3.75,129642
2011-10-27,4.0,4.0,3.76,3.9,181938
2011-10-28,3.93,4.6,3.78,4.59,491379
2011-10-31,4.51,5.03,4.14,4.35,542299
2011-11-01,4.03,4.21,3.52,4.06,447225
2011-11-02,4.24,4.24,4.0,4.05,113893
2011-11-03,4.08,4.5,3.88,4.29,188476
2011-11-04,4.19,4.7,4.03,4.25,194327
2011-11-07,4.22,4.45,4.2,4.38,102361
2011-11-08,4.33,4.39,3.69,3.88,402934
2011-11-09,3.8,3.98,3.71,3.82,151528
2011-11-10,3.71,3.95,3.71,3.8,95473
2011-11-11,3.96,4.22,3.85,3.93,249929
2011-11-14,3.88,3.88,3.63,3.66,181897
2011-11-15,3.65,3.75,3.37,3.66,160295
2011-11-16,3.57,3.7,3.5,3.58,60684
2011-11-17,3.6,3.6,3.51,3.53,45829
2011-11-18,3.55,3.67,3.45,3.59,109643
2011-11-21,3.46,3.73,3.2,3.36,159316
2011-11-22,3.34,3.34,3.23,3.29,100222
2011-11-23,3.5,3.69,3.11,3.16,167862
2011-11-25,3.16,3.29,3.13,3.19,34924
2011-11-28,3.35,3.37,3.23,3.24,159508
2011-11-29,3.27,3.28,3.13,3.15,75526
2011-11-30,3.27,3.29,3.11,3.18,146122
2011-12-01,3.11,3.35,3.11,3.34,102393
2011-12-02,3.34,3.62,3.34,3.42,111618
2011-12-05,3.45,3.64,3.41,3.57,79625
2011-12-06,3.62,3.62,3.4,3.45,49628
2011-12-07,3.5,3.61,3.45,3.51,87551
2011-12-08,3.44,3.59,3.43,3.51,80954
2011-12-09,3.57,3.58,3.48,3.5,30847
2011-12-12,3.42,3.59,3.42,3.55,37182
2011-12-13,3.59,3.59,3.42,3.48,113701
2011-12-14,3.59,3.59,3.27,3.33,63251
2011-12-15,3.37,3.43,3.27,3.27,56692
2011-12-16,3.4,3.45,3.3,3.38,22984
2011-12-19,3.34,3.43,3.17,3.18,102626
2011-12-20,3.2,3.36,3.2,3.25,58348
2011-12-21,3.25,3.35,3.22,3.31,53503
2011-12-22,3.32,3.38,3.27,3.29,56086
2011-12-23,3.28,3.31,3.27,3.31,21217
2011-12-27,3.16,3.34,3.16,3.31,55735
2011-12-28,3.27,3.27,3.06,3.16,91479
2011-12-29,3.1,3.29,3.07,3.19,84959
2011-12-30,3.14,3.3,3.07,3.13,131020
2012-01-03,3.2,3.48,3.2,3.37,61746
2012-01-04,3.4,3.52,3.36,3.48,59756
2012-01-05,3.43,3.43,3.33,3.33,32471
2012-01-06,3.36,3.49,3.34,3.37,29981
2012-01-09,3.42,3.46,3.22,3.28,51692
2012-01-10,3.31,3.4,3.3,3.35,94861
2012-01-11,3.8,4.46,3.76,4.32,1371222
2012-01-12,4.42,4.9,4.35,4.47,1324552
2012-01-13,4.42,4.43,4.0,4.18,281382
2012-01-17,4.25,4.58,4.18,4.22,323050
2012-01-18,4.48,4.49,4.08,4.25,212654
2012-01-19,4.3,4.36,4.13,4.17,157009
2012-01-20,4.19,4.66,3.95,4.5,481434
2012-01-23,4.5,4.88,4.49,4.72,616969
2012-01-24,4.67,4.78,4.4,4.68,175669
2012-01-25,4.63,4.81,4.54,4.77,143236
2012-01-26,4.85,4.89,4.42,4.52,286446
2012-01-27,4.47,4.5,4.35,4.43,176728
2012-01-30,4.4,4.83,4.4,4.74,249442
2012-01-31,4.82,4.85,4.5,4.51,182510
2012-02-01,4.57,4.57,4.43,4.52,219982
2012-02-02,4.58,4.58,4.35,4.41,187420
2012-02-03,4.4,4.44,4.36,4.39,223403
2012-02-06,4.36,4.43,4.25,4.31,113676
2012-02-07,4.33,4.33,4.02,4.05,177926
2012-02-08,4.07,4.15,3.65,4.11,310500
2012-02-09,4.1,4.15,3.95,3.97,135593
2012-02-10,3.95,3.97,3.77,3.82,128478
2012-02-13,3.85,3.98,3.8,3.82,120379
2012-02-14,3.8,3.82,3.57,3.6,162511
2012-02-15,3.58,3.65,3.46,3.47,181757
2012-02-16,3.49,3.58,3.41,3.55,319683
2012-02-17,3.62,3.65,3.43,3.49,305093
2012-02-21,3.55,3.58,3.3,3.32,405612
2012-02-22,3.31,3.65,3.3,3.57,649253
2012-02-23,3.64,3.73,3.45,3.51,390783
2012-02-24,3.58,3.58,3.45,3.45,328622
2012-02-27,3.46,3.54,3.33,3.5,258130
2012-02-28,3.51,3.57,3.42,3.47,258745
2012-02-29,3.5,3.53,3.38,3.39,129941
2012-03-01,3.44,3.48,3.37,3.44,158553
2012-03-02,3.44,3.47,3.38,3.4,156593
2012-03-05,3.41,3.44,3.31,3.39,169356
2012-03-06,3.4,3.42,3.31,3.34,350076
2012-03-07,3.42,3.44,3.26,3.28,509594
2012-03-08,3.33,3.34,3.25,3.27,131419
2012-03-09,3.31,3.31,3.1,3.1,385818
2012-03-12,3.13,3.13,2.63,2.94,970760
2012-03-13,2.99,3.04,2.85,2.97,356165
2012-03-14,3.01,3.02,2.87,2.92,242102
2012-03-15,2.96,3.0,2.89,3.0,167509
2012-03-16,3.0,3.06,2.93,2.93,175329
2012-03-19,2.95,3.0,2.94,2.99,84617
2012-03-20,2.94,2.99,2.85,2.88,109840
2012-03-21,2.88,2.91,2.76,2.8,119315
2012-03-22,2.82,2.82,2.73,2.77,73580
2012-03-23,2.8,2.82,2.76,2.79,94705
2012-03-26,2.93,2.95,2.84,2.86,73185
2012-03-27,2.9,2.93,2.88,2.89,109216
2012-03-28,2.94,2.97,2.88,2.91,106279
2012-03-29,2.97,3.01,2.9,2.92,108005
2012-03-30,2.97,3.06,2.92,3.02,119964
2012-04-02,3.04,3.28,2.99,3.14,501855
2012-04-03,3.16,3.2,3.1,3.18,158816
2012-04-04,3.15,3.15,3.03,3.07,130206
2012-04-05,3.05,3.45,3.03,3.21,582255
2012-04-09,3.17,3.2,3.03,3.08,186941
2012-04-10,3.06,3.17,2.8,2.91,248835
2012-04-11,2.91,3.05,2.91,2.96,77642
2012-04-12,3.0,3.12,2.91,3.03,108815
2012-04-13,3.0,3.08,2.95,3.03,59950
2012-04-16,3.02,3.09,3.0,3.01,65746
2012-04-17,3.0,3.16,2.88,3.01,420208
2012-04-18,3.02,3.03,2.98,3.0,62240
2012-04-19,2.97,3.07,2.97,2.99,80186
2012-04-20,3.0,3.04,2.98,3.01,48942
2012-04-23,2.98,3.01,2.98,3.01,90070
2012-04-24,2.99,3.21,2.99,3.12,196875
2012-04-25,3.2,3.2,3.08,3.1,66305
2012-04-26,3.09,3.18,3.08,3.15,41187
2012-04-27,3.15,3.38,3.15,3.23,180162
2012-04-30,3.23,3.23,3.07,3.14,54684
2012-05-01,3.13,3.16,3.07,3.1,40794
2012-05-02,3.08,3.2,3.08,3.08,82005
2012-05-03,3.08,3.08,2.98,3.0,71987
2012-05-04,3.0,3.1,2.97,3.01,54516
2012-05-07,2.95,3.02,2.95,2.97,61194
2012-05-08,2.97,3.03,2.88,2.96,102344
2012-05-09,2.92,2.96,2.85,2.86,119386
2012-05-10,2.88,2.9,2.8,2.82,77379
2012-05-11,2.8,2.89,2.8,2.8,74407
2012-05-14,2.8,2.81,2.54,2.7,259065
2012-05-15,2.67,2.9,2.64,2.83,162706
2012-05-16,3.23,3.23,2.73,2.78,234303
2012-05-17,2.75,2.75,2.67,2.72,127399
2012-05-18,2.74,2.76,2.72,2.73,167206
2012-05-21,2.71,2.76,2.68,2.72,111614
2012-05-22,2.76,2.76,2.69,2.69,78458
2012-05-23,2.7,2.72,2.59,2.71,105361
2012-05-24,2.7,2.81,2.68,2.72,48415
2012-05-25,2.69,2.72,2.62,2.64,48226
2012-05-29,2.63,2.66,2.55,2.55,91456
2012-05-30,2.57,2.57,2.35,2.42,77486
2012-05-31,2.44,2.44,2.27,2.33,124990
2012-06-01,2.27,2.35,2.11,2.15,132131
2012-06-04,2.18,2.24,2.12,2.14,59866
2012-06-05,2.11,2.22,2.03,2.07,86202
2012-06-06,2.08,2.19,2.07,2.15,115721
2012-06-07,2.2,2.36,2.2,2.26,80631
2012-06-08,2.26,2.33,2.15,2.24,21157
2012-06-11,2.3,2.3,2.14,2.19,40363
2012-06-12,2.22,2.3,2.17,2.29,112806
2012-06-13,2.3,2.35,2.2,2.25,133512
2012-06-14,2.22,2.32,2.19,2.27,51009
2012-06-15,2.24,2.32,2.23,2.26,78307
2012-06-18,2.25,2.3,2.14,2.14,104855
2012-06-19,2.14,2.32,2.14,2.2,115463
2012-06-20,2.22,2.22,2.17,2.17,43567
2012-06-21,2.16,2.2,2.15,2.16,33056
2012-06-22,2.14,2.21,2.12,2.12,29207
2012-06-25,2.1,2.11,1.99,2.0,126861
2012-06-26,2.0,2.03,2.0,2.01,53766
2012-06-27,2.0,2.1,2.0,2.07,55340
2012-06-28,2.05,2.09,1.95,2.02,447337
2012-06-29,2.06,2.12,2.0,2.12,52515
2012-07-02,2.12,2.22,2.11,2.2,29325
2012-07-03,2.2,2.25,2.2,2.21,65339
2012-07-05,2.21,2.26,2.12,2.16,53656
2012-07-06,2.11,2.22,2.1,2.17,60415
2012-07-09,2.2,2.2,2.09,2.14,34530
2012-07-10,2.14,2.2,2.06,2.1,69368
2012-07-11,2.12,2.19,2.08,2.19,46055
2012-07-12,2.15,2.18,2.03,2.11,14602
2012-07-13,2.11,2.15,2.11,2.15,37907
2012-07-16,2.16,2.16,2.05,2.14,22914
2012-07-17,2.17,2.17,2.08,2.09,41989
2012-07-18,2.05,2.11,2.02,2.06,54037
2012-07-19,2.09,2.09,1.99,2.01,91680
2012-07-20,2.0,2.05,1.96,2.01,32148
2012-07-23,2.0,2.03,1.95,1.97,93427
2012-07-24,1.97,1.97,1.69,1.77,188665
2012-07-25,1.78,1.78,1.72,1.73,50887
2012-07-26,1.74,1.82,1.7,1.75,64942
2012-07-27,1.75,1.81,1.75,1.81,42571
2012-07-30,1.81,1.86,1.76,1.85,50524
2012-07-31,1.87,1.87,1.79,1.84,79157
2012-08-01,1.83,1.87,1.81,1.87,29513
2012-08-02,1.88,1.88,1.7,1.82,104993
2012-08-03,1.82,1.88,1.8,1.85,30088
2012-08-06,1.93,2.06,1.91,2.02,118219
2012-08-07,2.1,2.22,2.04,2.08,169437
2012-08-08,2.07,2.07,2.0,2.04,65629
2012-08-09,2.04,2.12,2.02,2.08,67063
2012-08-10,2.14,2.14,2.02,2.08,23864
2012-08-13,2.08,2.12,2.08,2.09,36167
2012-08-14,2.16,2.16,2.05,2.07,31947
2012-08-15,2.08,2.1,2.02,2.09,35037
2012-08-16,2.1,2.12,2.04,2.12,41015
2012-08-17,2.12,2.15,2.1,2.1,46866
2012-08-20,2.06,2.16,2.06,2.12,31073
2012-08-21,2.1,2.14,2.05,2.06,30057
2012-08-22,2.06,2.12,2.06,2.08,9337
2012-08-23,2.08,2.1,2.06,2.08,17755
2012-08-24,2.05,2.12,2.05,2.1,29670
2012-08-27,2.07,2.12,2.07,2.1,12469
2012-08-28,2.1,2.13,2.09,2.1,28233
2012-08-29,2.1,2.37,2.08,2.36,211285
2012-08-30,2.45,2.58,2.41,2.48,199763
2012-08-31,2.48,2.48,2.22,2.32,62237
2012-09-04,2.28,2.28,2.11,2.25,48573
2012-09-05,2.23,2.25,2.15,2.18,25412
2012-09-06,2.18,2.32,2.16,2.18,29864
2012-09-07,2.22,2.36,2.11,2.17,78167
2012-09-10,2.16,2.21,2.16,2.2,28170
2012-09-11,2.2,2.25,2.19,2.22,40216
2012-09-12,2.22,2.23,2.18,2.18,27995
2012-09-13,2.22,2.26,2.18,2.24,36182
2012-09-14,2.28,2.4,2.2,2.29,62907
2012-09-17,2.29,2.31,2.23,2.23,14880
2012-09-18,2.26,2.33,2.26,2.29,48588
2012-09-19,2.32,2.39,2.29,2.39,27556
2012-09-20,2.39,2.5,2.37,2.48,97051
2012-09-21,2.46,2.48,2.28,2.47,81773
2012-09-24,2.46,2.49,2.33,2.4,54424
2012-09-25,2.38,2.44,2.3,2.32,42532
2012-09-26,2.3,2.35,2.26,2.3,28248
2012-09-27,2.34,2.36,2.3,2.3,5249
2012-09-28,2.3,2.35,2.3,2.35,9145
2012-10-01,2.35,2.41,2.27,2.32,17986
2012-10-02,2.31,2.34,2.26,2.34,16967
2012-10-03,2.31,2.31,2.23,2.29,13120
2012-10-04,2.27,2.33,2.22,2.27,17572
2012-10-05,2.26,2.27,2.22,2.26,17703
2012-10-08,2.23,2.3,2.2,2.3,24031
2012-10-09,2.27,2.3,2.23,2.3,8822
2012-10-10,2.26,2.33,2.26,2.29,4236
2012-10-11,2.29,2.33,2.27,2.27,21326
2012-10-12,2.29,2.29,2.12,2.15,27124
2012-10-15,2.14,2.21,2.12,2.13,35503
2012-10-16,2.16,2.24,2.15,2.24,26382
2012-10-17,2.24,2.24,2.14,2.22,28650
2012-10-18,2.19,2.21,2.14,2.2,18434
2012-10-19,2.22,2.26,2.13,2.21,28060
2012-10-22,2.24,2.29,2.21,2.24,21179
2012-10-23,2.25,2.27,2.17,2.22,27249
2012-10-24,2.24,2.24,2.1,2.16,30628
2012-10-25,2.16,2.27,2.16,2.25,22350
2012-10-26,2.22,2.26,2.22,2.24,5984
2012-10-31,2.2,2.23,2.15,2.23,11320
2012-11-01,2.2,2.26,2.2,2.25,18378
2012-11-02,2.29,2.29,2.2,2.27,9853
2012-11-05,2.24,2.28,2.21,2.27,10684
2012-11-06,2.26,2.29,2.23,2.26,9588
2012-11-07,2.2,2.24,2.15,2.24,22885
2012-11-08,2.21,2.24,2.1,2.13,17469
2012-11-09,2.15,2.24,2.15,2.17,19812
2012-11-12,2.19,2.24,2.12,2.16,21399
2012-11-13,2.18,2.18,2.08,2.1,25464
2012-11-14,2.09,2.1,2.02,2.06,51289
2012-11-15,2.06,2.25,2.03,2.23,120261
2012-11-16,2.0,2.0,1.51,1.75,207037
2012-11-19,1.74,1.75,1.55,1.66,66995
2012-11-20,1.58,1.67,1.55,1.58,69175
2012-11-21,1.72,1.72,1.52,1.65,69125
2012-11-23,1.63,1.75,1.62,1.69,33208
2012-11-26,1.71,1.78,1.7,1.76,54212
2012-11-27,1.75,1.82,1.71,1.78,33453
2012-11-28,1.73,1.75,1.71,1.71,26443
2012-11-29,1.72,1.75,1.64,1.67,33415
2012-11-30,1.65,1.78,1.64,1.7,17381
2012-12-03,1.68,1.78,1.65,1.75,62197
2012-12-04,1.72,1.75,1.69,1.71,16702
2012-12-05,1.65,1.71,1.65,1.66,20992
2012-12-06,1.67,1.7,1.67,1.68,16905
2012-12-07,1.65,1.69,1.62,1.65,17717
2012-12-10,1.65,1.7,1.65,1.68,32095
2012-12-11,1.68,1.8,1.68,1.77,61798
2012-12-12,1.78,1.78,1.74,1.77,31038
2012-12-13,1.68,1.77,1.68,1.73,13054
2012-12-14,1.74,1.77,1.72,1.77,28162
2012-12-17,1.74,1.77,1.73,1.73,13402
2012-12-18,1.71,1.77,1.69,1.72,26434
2012-12-19,1.72,1.74,1.69,1.7,13337
2012-12-20,1.7,1.74,1.65,1.66,41008
2012-12-21,1.65,1.69,1.62,1.68,22800
2012-12-24,1.73,1.73,1.65,1.7,16228
2012-12-26,1.67,1.69,1.53,1.63,100110
2012-12-27,1.6,1.67,1.6,1.66,38900
2012-12-28,1.67,1.67,1.6,1.66,21400
2012-12-31,1.67,1.67,1.43,1.54,153465
2013-01-02,1.52,1.68,1.52,1.68,56252
2013-01-03,1.64,1.7,1.61,1.67,42014
2013-01-04,1.68,1.68,1.63,1.68,35422
2013-01-07,1.65,1.7,1.63,1.67,28587
2013-01-08,1.67,1.7,1.61,1.65,17948
2013-01-09,1.65,1.77,1.6,1.72,60433
2013-01-10,1.72,1.72,1.65,1.71,12414
2013-01-11,1.71,1.71,1.65,1.68,24157
2013-01-14,1.67,1.75,1.67,1.74,47757
2013-01-15,1.72,1.84,1.72,1.84,57828
2013-01-16,1.88,1.95,1.84,1.93,59331
2013-01-17,1.97,1.99,1.9,1.9,42023
2013-01-18,1.9,1.99,1.9,1.98,72605
2013-01-22,1.99,2.18,1.93,2.18,104345
2013-01-23,2.08,2.18,2.0,2.07,84411
2013-01-24,2.1,2.1,2.02,2.03,40118
2013-01-25,2.01,2.05,1.8,1.9,66787
2013-01-28,2.06,2.07,1.87,1.95,32088
2013-01-29,1.94,1.99,1.81,1.92,21883
2013-01-30,1.94,1.94,1.88,1.91,7271
2013-01-31,1.9,2.0,1.88,1.95,15814
2013-02-01,1.97,1.97,1.92,1.95,10703
2013-02-04,1.93,1.93,1.84,1.87,19558
2013-02-05,1.87,1.96,1.87,1.95,23588
2013-02-06,1.98,1.98,1.81,1.93,11994
2013-02-07,1.89,1.91,1.79,1.8,20590
2013-02-08,1.77,1.81,1.65,1.65,113476
2013-02-11,1.65,1.71,1.65,1.68,20302
2013-02-12,1.7,1.77,1.69,1.73,39934
2013-02-13,1.74,1.74,1.68,1.71,13974
2013-02-14,1.78,1.82,1.73,1.82,21105
2013-02-15,1.79,1.82,1.78,1.82,10039
2013-02-19,1.82,1.82,1.71,1.8,25456
2013-02-20,1.7,1.84,1.7,1.75,7030
2013-02-21,1.73,1.81,1.68,1.68,10386
2013-02-22,1.72,1.77,1.72,1.77,6686
2013-02-25,1.81,1.81,1.68,1.7,18691
2013-02-26,1.7,1.74,1.69,1.7,1884
2013-02-27,1.82,1.84,1.68,1.68,54739
2013-02-28,1.68,1.72,1.66,1.72,30784
2013-03-01,1.76,1.76,1.64,1.71,34762
2013-03-04,1.67,1.72,1.65,1.68,29732
2013-03-05,1.67,1.67,1.64,1.66,27627
2013-03-06,1.69,1.74,1.64,1.73,26003
2013-03-07,1.74,1.74,1.52,1.55,157095
2013-03-08,1.59,1.62,1.51,1.52,21439
2013-03-11,1.56,1.6,1.53,1.6,24847
2013-03-12,1.6,1.6,1.54,1.55,10717
2013-03-13,1.56,1.6,1.55,1.6,23038
2013-03-14,1.6,1.62,1.6,1.6,15514
2013-03-15,1.6,1.6,1.52,1.56,12130
2013-03-18,1.53,1.58,1.52,1.52,28970
2013-03-19,1.52,1.6,1.51,1.51,56370
2013-03-20,1.51,1.51,1.46,1.5,29561
2013-03-21,1.52,1.59,1.5,1.54,15526
2013-03-22,1.51,1.53,1.45,1.5,1699
2013-03-25,1.46,1.49,1.44,1.45,17933
2013-03-26,1.45,1.5,1.41,1.43,36524
2013-03-27,1.45,1.47,1.41,1.44,47160
2013-03-28,1.43,1.45,1.4,1.42,24026
2013-04-01,1.39,1.5,1.39,1.4,44927
2013-04-02,1.44,1.44,1.4,1.4,34886
2013-04-03,1.4,1.42,1.39,1.39,23810
2013-04-04,1.4,1.44,1.39,1.44,18609
2013-04-05,1.41,1.44,1.4,1.4,18867
2013-04-08,1.43,1.44,1.41,1.41,4080
2013-04-09,1.38,1.44,1.38,1.38,12598
2013-04-10,1.43,1.43,1.38,1.39,7139
2013-04-11,1.4,1.43,1.4,1.41,6237
2013-04-12,1.4,1.43,1.4,1.42,7152
2013-04-15,1.42,1.44,1.4,1.4,17185
2013-04-16,1.43,1.43,1.4,1.4,7932
2013-04-17,1.37,1.43,1.27,1.31,31075
2013-04-18,1.3,1.35,1.19,1.19,28644
2013-04-19,1.22,1.25,1.2,1.23,9374
2013-04-22,1.24,1.24,1.18,1.2,14733
2013-04-23,1.21,1.24,1.15,1.21,39055
2013-04-24,1.25,1.25,1.16,1.19,55110
2013-04-25,1.19,1.22,1.07,1.15,96318
2013-04-26,1.12,1.15,1.05,1.13,56275
2013-04-29,1.13,1.19,1.08,1.11,40205
2013-04-30,1.11,1.13,1.11,1.11,20226
2013-05-01,1.11,1.13,1.11,1.13,16163
2013-05-02,1.15,1.18,1.12,1.12,74097
2013-05-03,1.15,1.34,1.15,1.31,109584
2013-05-06,1.29,1.59,1.29,1.52,208931
2013-05-07,1.62,1.63,1.51,1.51,158889
2013-05-08,1.51,1.58,1.5,1.55,40226
2013-05-09,1.56,1.6,1.53,1.56,25516
2013-05-10,1.54,1.54,1.44,1.47,40905
2013-05-13,1.49,1.5,1.44,1.48,10732
2013-05-14,1.5,1.64,1.5,1.61,35296
2013-05-15,1.6,1.68,1.5,1.66,62507
2013-05-16,1.65,1.66,1.61,1.63,37271
2013-05-17,1.66,1.67,1.53,1.54,30840
2013-05-20,1.55,1.67,1.55,1.65,48775
2013-05-21,1.6,1.6,1.45,1.54,98962
2013-05-22,1.66,1.66,1.55,1.55,45727
2013-05-23,1.55,1.56,1.52,1.52,49203
2013-05-24,1.54,1.54,1.44,1.47,44239
2013-05-28,1.47,1.56,1.44,1.46,21652
2013-05-29,1.45,1.46,1.38,1.43,27348
2013-05-30,1.43,1.5,1.41,1.44,22022
2013-05-31,1.49,1.5,1.39,1.39,15810
2013-06-03,1.41,1.47,1.38,1.4,6786
2013-06-04,1.43,1.44,1.35,1.4,39600
2013-06-05,1.38,1.42,1.37,1.37,35070
2013-06-06,1.35,1.36,1.27,1.33,66924
2013-06-07,1.33,1.34,1.33,1.33,21130
2013-06-10,1.33,1.35,1.29,1.29,9498
2013-06-11,1.25,1.4,1.23,1.24,52255
2013-06-12,1.21,1.27,1.11,1.23,159415
2013-06-13,1.2,1.24,1.2,1.23,33970
2013-06-14,1.22,1.23,1.21,1.22,4580
2013-06-17,1.22,1.28,1.22,1.23,7250
2013-06-18,1.22,1.22,1.15,1.2,19782
2013-06-19,1.2,1.21,1.19,1.21,51521
2013-06-20,1.19,1.22,1.16,1.19,28561
2013-06-21,1.2,1.21,1.15,1.2,10841
2013-06-24,1.2,1.2,1.18,1.18,16012
2013-06-25,1.18,1.2,1.15,1.15,19700
2013-06-26,1.16,1.21,1.15,1.15,20561
2013-06-27,1.21,1.21,1.17,1.18,21082
2013-06-28,1.18,1.29,1.18,1.18,65872
2013-07-01,1.21,1.31,1.21,1.25,23591
2013-07-02,1.27,1.37,1.27,1.33,44299
2013-07-03,1.3,1.3,1.25,1.3,6552
2013-07-05,1.28,1.31,1.25,1.27,7466
2013-07-08,1.25,1.3,1.25,1.3,11497
2013-07-09,1.3,1.3,1.21,1.25,13953
2013-07-10,1.17,1.25,1.15,1.21,13456
2013-07-11,1.22,1.23,1.18,1.21,6241
2013-07-12,1.21,1.22,1.21,1.22,4089
2013-07-15,1.28,1.28,1.2,1.23,36232
2013-07-16,1.2,1.23,1.2,1.23,3153
2013-07-17,1.24,1.27,1.22,1.27,14638
2013-07-18,1.28,1.35,1.26,1.27,44822
2013-07-19,1.28,1.34,1.26,1.28,7140
2013-07-22,1.28,1.29,1.25,1.26,25966
2013-07-23,1.27,1.29,1.23,1.25,30080
2013-07-24,1.26,1.33,1.2,1.29,30467
2013-07-25,1.29,1.29,1.2,1.23,16806
2013-07-26,1.24,1.26,1.23,1.24,4751
2013-07-29,1.24,1.28,1.23,1.28,3601
2013-07-30,1.27,1.3,1.27,1.3,11921
2013-07-31,1.28,1.3,1.27,1.28,8587
2013-08-01,1.3,1.35,1.28,1.33,8640
2013-08-02,1.35,1.36,1.3,1.3,32361
2013-08-05,1.3,1.34,1.24,1.28,8527
2013-08-06,1.24,1.28,1.23,1.26,3612
2013-08-07,1.28,1.28,1.23,1.28,9158
2013-08-08,1.3,1.33,1.28,1.3,4124
2013-08-09,1.31,1.31,1.25,1.29,26129
2013-08-12,1.24,1.35,1.24,1.33,55989
2013-08-13,1.35,1.48,1.32,1.45,92989